LAMMPS data file

264 atoms
1 atom types

#40.0 0.0 0.0 avec
#0.0 40.0 0.0 bvec
#0.0 0.0 40.0 cvec
#-20.0 -20.0 -20.0 abc origin

-20.0 20.0 xlo xhi
-20.0 20.0 ylo yhi
-20.0 20.0 zlo zhi

#Masses

#1 12.0107  # C

Atoms  # molecular

1 1 1 -14.3429 10.5081 -0.194874
2 1 1 -14.344 9.07253 0.305685
3 1 1 -13.1257 8.32641 -0.223417
4 1 1 -11.8583 9.03949 0.24223
5 1 1 -11.8512 10.4837 -0.253771
6 1 1 -13.0784 11.2194 0.258841
7 1 1 -10.6184 8.30845 -0.260439
8 1 1 -9.363 9.02994 0.22052
9 1 1 -9.35792 10.4719 -0.279333
10 1 1 -10.5958 11.1995 0.219611
11 1 1 -8.11803 8.30163 -0.272251
12 1 1 -6.86729 9.02571 0.215632
13 1 1 -6.86328 10.4674 -0.284934
14 1 1 -8.10796 11.1925 0.203244
15 1 1 -5.61954 8.29897 -0.272656
16 1 1 -4.37071 9.02396 0.218306
17 1 1 -4.36787 10.466 -0.281619
18 1 1 -5.61563 11.1897 0.20235
19 1 1 -3.1218 8.29816 -0.269169
20 1 1 -1.8732 9.02333 0.221675
21 1 1 -1.87204 10.4656 -0.277609
22 1 1 -3.12054 11.1885 0.206666
23 1 1 -0.624399 8.29799 -0.267527
24 1 1 0.624777 9.02323 0.221236
25 1 1 0.623937 10.4655 -0.277973
26 1 1 -0.623941 11.1881 0.208865
27 1 1 1.87296 8.298 -0.270285
28 1 1 3.12256 9.02358 0.216209
29 1 1 3.11988 10.4656 -0.283752
30 1 1 1.87297 11.1883 0.205538
31 1 1 4.37055 8.29827 -0.276146
32 1 1 5.61955 9.0247 0.209807
33 1 1 5.61558 10.4662 -0.291668
34 1 1 4.36899 11.189 0.197786
35 1 1 6.86876 8.29957 -0.280163
36 1 1 8.11537 9.02755 0.208924
37 1 1 8.11072 10.4682 -0.294567
38 1 1 6.86292 11.191 0.191064
39 1 1 9.36843 8.30411 -0.274266
40 1 1 10.6103 9.0347 0.223611
41 1 1 10.6052 10.4742 -0.281495
42 1 1 9.35335 11.1952 0.194731
43 1 1 11.8699 8.31726 -0.251415
44 1 1 13.1121 9.05123 0.249685
45 1 1 13.1039 10.4988 -0.23236
46 1 1 11.8369 11.204 0.226746
47 1 1 14.2975 11.2587 0.313197
48 1 1 -13.1261 6.87825 0.25628
49 1 1 -11.8784 6.14938 -0.240303
50 1 1 -10.6214 6.86754 0.240692
51 1 1 -14.3679 6.14821 -0.23597
52 1 1 -14.3674 4.71805 0.275821
53 1 1 -13.1366 3.98115 -0.234299
54 1 1 -11.8789 4.70112 0.247227
55 1 1 -13.1368 2.53375 0.245817
56 1 1 -11.8837 1.80966 -0.242826
57 1 1 -10.6317 2.53102 0.247026
58 1 1 -10.6309 3.97514 -0.247198
59 1 1 -14.3729 1.80099 -0.256427
60 1 1 -14.3733 0.371867 0.257237
61 1 1 -13.1379 -0.362119 -0.245205
62 1 1 -11.8841 0.360759 0.242887
63 1 1 -13.1383 -1.80894 0.236275
64 1 1 -11.8822 -2.53091 -0.246673
65 1 1 -10.633 -1.80641 0.246601
66 1 1 -10.6328 -0.361986 -0.246999
67 1 1 -14.371 -2.54469 -0.270399
68 1 1 -14.3719 -3.97309 0.245605
69 1 1 -13.133 -4.70606 -0.249598
70 1 1 -11.8824 -3.97899 0.241492
71 1 1 -13.1327 -6.1524 0.234515
72 1 1 -11.872 -6.87093 -0.240793
73 1 1 -10.6268 -6.14205 0.255828
74 1 1 -10.6279 -4.69969 -0.242764
75 1 1 -14.3602 -6.89428 -0.277341
76 1 1 -14.3588 -8.3246 0.235448
77 1 1 -13.1121 -9.05123 -0.249695
78 1 1 -11.8699 -8.31726 0.251384
79 1 1 -13.1039 -10.4988 0.232353
80 1 1 -11.8369 -11.204 -0.226772
81 1 1 -10.6052 -10.4742 0.281454
82 1 1 -10.6103 -9.0347 -0.223654
83 1 1 -14.2975 -11.2587 -0.31318
84 1 1 -9.35335 -11.1952 -0.194779
85 1 1 -8.11072 -10.4682 0.294525
86 1 1 -8.11537 -9.02755 -0.208966
87 1 1 -9.36843 -8.30411 0.274219
88 1 1 -6.86291 -11.1909 -0.191095
89 1 1 -5.61558 -10.4662 0.29166
90 1 1 -5.61955 -9.0247 -0.209811
91 1 1 -6.86877 -8.29957 0.280137
92 1 1 -4.36898 -11.189 -0.197772
93 1 1 -3.11988 -10.4656 0.283791
94 1 1 -3.12255 -9.02358 -0.216165
95 1 1 -4.37056 -8.29827 0.276169
96 1 1 -1.87296 -11.1883 -0.205484
97 1 1 -0.623938 -10.4655 0.278036
98 1 1 -0.624776 -9.02323 -0.221167
99 1 1 -1.87297 -8.298 0.27035
100 1 1 0.623939 -11.1882 -0.208807
101 1 1 1.87204 -10.4656 0.277654
102 1 1 1.87319 -9.02333 -0.221624
103 1 1 0.624401 -8.29799 0.267596
104 1 1 3.12053 -11.1885 -0.206645
105 1 1 4.36787 -10.466 0.281617
106 1 1 4.37071 -9.02396 -0.218305
107 1 1 3.12181 -8.29816 0.2692
108 1 1 5.61563 -11.1897 -0.202375
109 1 1 6.86329 -10.4674 0.284893
110 1 1 6.86729 -9.02571 -0.215674
111 1 1 5.61954 -8.29898 0.272633
112 1 1 8.10796 -11.1925 -0.203288
113 1 1 9.35792 -10.4719 0.279295
114 1 1 9.36301 -9.02994 -0.220565
115 1 1 8.11803 -8.30163 0.272199
116 1 1 10.5958 -11.1995 -0.219623
117 1 1 11.8512 -10.4837 0.253785
118 1 1 11.8583 -9.03949 -0.242228
119 1 1 10.6184 -8.30844 0.260407
120 1 1 13.0784 -11.2194 -0.258782
121 1 1 14.3429 -10.5081 0.194966
122 1 1 14.344 -9.07253 -0.305609
123 1 1 13.1257 -8.32641 0.223446
124 1 1 13.1261 -6.87825 -0.256269
125 1 1 11.8784 -6.14938 0.240279
126 1 1 10.6214 -6.86754 -0.240733
127 1 1 14.3679 -6.14821 0.236002
128 1 1 14.3674 -4.71805 -0.275804
129 1 1 13.1366 -3.98115 0.234282
130 1 1 11.8789 -4.70112 -0.247263
131 1 1 13.1368 -2.53376 -0.245844
132 1 1 11.8837 -1.80966 0.242777
133 1 1 10.6317 -2.53101 -0.247087
134 1 1 10.6309 -3.97514 0.24714
135 1 1 14.3729 -1.80099 0.256418
136 1 1 14.3734 -0.371867 -0.257251
137 1 1 13.1379 0.36212 0.245171
138 1 1 11.8841 -0.360758 -0.242938
139 1 1 13.1383 1.80894 -0.236307
140 1 1 11.8822 2.53091 0.246627
141 1 1 10.633 1.80641 -0.24666
142 1 1 10.6328 0.361986 0.246938
143 1 1 14.371 2.54469 0.270386
144 1 1 14.3719 3.9731 -0.245613
145 1 1 13.133 4.70606 0.249574
146 1 1 11.8824 3.97899 -0.241535
147 1 1 13.1328 6.1524 -0.234534
148 1 1 11.872 6.87093 0.240759
149 1 1 10.6268 6.14205 -0.255876
150 1 1 10.6279 4.69969 0.242713
151 1 1 14.3602 6.89428 0.277345
152 1 1 14.3588 8.3246 -0.23544
153 1 1 -9.37592 6.13931 -0.255307
154 1 1 -8.1221 6.86101 0.22963
155 1 1 -9.37795 4.69642 0.24091
156 1 1 -9.38211 1.80632 -0.24543
157 1 1 -8.1302 2.52804 0.244836
158 1 1 -8.12878 3.97116 -0.250437
159 1 1 -9.3827 0.361387 0.245989
160 1 1 -9.38102 -2.5289 -0.24244
161 1 1 -8.13104 -1.80501 0.249551
162 1 1 -8.13116 -0.361194 -0.243991
163 1 1 -9.38039 -3.97286 0.251485
164 1 1 -9.37202 -6.86334 -0.227269
165 1 1 -8.12478 -6.13611 0.264403
166 1 1 -8.12712 -4.6946 -0.235015
167 1 1 -6.8728 -6.85931 -0.222659
168 1 1 -4.3739 -6.85745 -0.22516
169 1 1 -5.62379 -6.13348 0.265553
170 1 1 -5.62651 -4.69219 -0.233831
171 1 1 -6.87791 -3.96959 0.255912
172 1 1 -6.87926 -2.52708 -0.240278
173 1 1 -6.88036 0.361231 0.247885
174 1 1 -6.87976 1.80458 -0.246042
175 1 1 -5.62877 -1.80404 0.250875
176 1 1 -5.62922 -0.360951 -0.243213
177 1 1 -5.62845 2.52655 0.245099
178 1 1 -5.62694 3.96893 -0.25104
179 1 1 -6.8768 4.69327 0.23875
180 1 1 -6.87405 6.13467 -0.26048
181 1 1 -5.62313 6.85817 0.228702
182 1 1 -4.37375 6.13303 -0.259417
183 1 1 -3.12396 6.85702 0.231281
184 1 1 -1.87437 6.13259 -0.257636
185 1 1 -0.6246 6.85664 0.232353
186 1 1 0.624669 6.13253 -0.258429
187 1 1 1.87477 6.85674 0.229865
188 1 1 3.12388 6.13268 -0.262015
189 1 1 4.3739 6.85745 0.225186
190 1 1 5.62379 6.13348 -0.265553
191 1 1 6.8728 6.85931 0.222634
192 1 1 8.12478 6.13611 -0.264445
193 1 1 9.37202 6.86334 0.227221
194 1 1 9.38039 3.97286 -0.251539
195 1 1 9.38102 2.5289 0.242382
196 1 1 8.12712 4.6946 0.234971
197 1 1 8.13103 1.80502 -0.249601
198 1 1 8.13116 0.361194 0.243938
199 1 1 9.3827 -0.361385 -0.246053
200 1 1 9.38211 -1.80632 0.245364
201 1 1 8.1302 -2.52804 -0.244895
202 1 1 8.12878 -3.97116 0.250378
203 1 1 9.37795 -4.69642 -0.240973
204 1 1 9.37592 -6.13931 0.255249
205 1 1 8.1221 -6.86101 -0.229685
206 1 1 6.87406 -6.13467 0.260436
207 1 1 5.62312 -6.85817 -0.228723
208 1 1 4.37376 -6.13303 0.259426
209 1 1 3.12396 -6.85702 -0.231246
210 1 1 1.87437 -6.13259 0.257699
211 1 1 0.624598 -6.85664 -0.232277
212 1 1 -0.62467 -6.13254 0.258511
213 1 1 -1.87476 -6.85674 -0.229794
214 1 1 -3.12389 -6.13268 0.262069
215 1 1 -3.12597 -4.69114 -0.236424
216 1 1 -4.37623 -3.96832 0.255385
217 1 1 -4.37773 -2.52602 -0.240655
218 1 1 -4.37814 0.360963 0.248294
219 1 1 -4.3778 1.80389 -0.245841
220 1 1 -3.12678 -1.80371 0.249957
221 1 1 -3.12736 -0.360794 -0.243943
222 1 1 -3.12672 2.52582 0.245562
223 1 1 -3.12582 3.96812 -0.250304
224 1 1 -4.37599 4.69163 0.239545
225 1 1 -1.87527 4.69095 0.240545
226 1 1 -0.625239 3.96793 -0.250555
227 1 1 0.625394 4.69081 0.239499
228 1 1 1.87528 3.96797 -0.252661
229 1 1 3.12597 4.69114 0.236483
230 1 1 4.37622 3.96832 -0.255354
231 1 1 5.62652 4.69219 0.233832
232 1 1 6.8779 3.96959 -0.255938
233 1 1 6.87926 2.52707 0.24025
234 1 1 6.88036 -0.361229 -0.24792
235 1 1 6.87977 -1.80458 0.246004
236 1 1 6.8768 -4.69327 -0.238793
237 1 1 5.62844 -2.52655 -0.24511
238 1 1 5.62695 -3.96893 0.251024
239 1 1 5.62876 1.80404 -0.250877
240 1 1 5.62923 0.36095 0.243208
241 1 1 4.37773 2.52602 0.240686
242 1 1 1.8763 2.52558 0.24284
243 1 1 3.12677 1.80371 -0.249896
244 1 1 -0.62515 2.52553 0.244859
245 1 1 0.625192 1.80366 -0.247897
246 1 1 -1.87622 1.80369 -0.246324
247 1 1 -1.87615 0.36078 0.24744
248 1 1 -1.87529 -3.96797 0.252741
249 1 1 -1.8763 -2.52558 -0.242757
250 1 1 -0.625393 -4.69081 -0.239411
251 1 1 1.87527 -4.69095 -0.240475
252 1 1 0.625241 -3.96794 0.250643
253 1 1 4.37599 -4.69163 -0.239532
254 1 1 3.12583 -3.96812 0.250351
255 1 1 4.3778 -1.80389 0.245864
256 1 1 3.12671 -2.52582 -0.24551
257 1 1 4.37813 -0.360963 -0.248267
258 1 1 3.12736 0.360792 0.244002
259 1 1 0.62563 0.360721 0.245719
260 1 1 1.87614 -0.360781 -0.247357
261 1 1 -0.625628 -0.360723 -0.245622
262 1 1 -0.625193 -1.80366 0.247993
263 1 1 0.625148 -2.52553 -0.244766
264 1 1 1.87622 -1.80369 0.246404