LAMMPS data file

374 atoms
3 atom types

-20.0 20.0 xlo xhi
-20.0 20.0 ylo yhi
-20.0 20.0 zlo zhi

Masses

1 12.0107  # C
2 15.9994  # O
3 1.00794  # H

Atoms  # charge

1 1 0.0 -14.3429 10.5091 -0.164025
2 1 0.0 -14.3423 9.07162 0.330867
3 1 0.0 -13.126 8.32736 -0.205304
4 1 0.0 -11.8569 9.03871 0.258379
5 1 0.0 -11.8515 10.4847 -0.232343
6 1 0.0 -13.0767 11.2186 0.287829
7 1 0.0 -10.6189 8.30925 -0.251336
8 1 0.0 -9.36165 9.02922 0.22695
9 1 0.0 -9.35858 10.4728 -0.268275
10 1 0.0 -10.5942 11.1988 0.23858
11 1 0.0 -8.11873 8.30225 -0.272936
12 1 0.0 -6.86605 9.0251 0.211702
13 1 0.0 -6.86411 10.4681 -0.285075
14 1 0.0 -8.10647 11.1918 0.210967
15 1 0.0 -5.62024 8.29939 -0.283036
16 1 0.0 -4.36976 9.02349 0.204951
17 1 0.0 -4.3686 10.4665 -0.292126
18 1 0.0 -5.61435 11.1891 0.198534
19 1 0.0 -3.12227 8.29838 -0.287167
20 1 0.0 -1.87277 9.02298 0.202144
21 1 0.0 -1.8724 10.4659 -0.295087
22 1 0.0 -3.11969 11.1881 0.19338
23 1 0.0 -0.624474 8.29808 -0.288983
24 1 0.0 0.624563 9.02292 0.200645
25 1 0.0 0.624086 10.4658 -0.296852
26 1 0.0 -0.623758 11.1878 0.190886
27 1 0.0 1.87332 8.29806 -0.289958
28 1 0.0 3.12175 9.02319 0.200105
29 1 0.0 3.12052 10.4659 -0.297806
30 1 0.0 1.87241 11.188 0.189314
31 1 0.0 4.37123 8.29846 -0.289295
32 1 0.0 5.61835 9.02414 0.202513
33 1 0.0 5.61651 10.4667 -0.295855
34 1 0.0 4.3678 11.1886 0.189539
35 1 0.0 6.86955 8.30004 -0.283851
36 1 0.0 8.11397 9.02677 0.212546
37 1 0.0 8.11167 10.4691 -0.286227
38 1 0.0 6.86133 11.1903 0.195048
39 1 0.0 9.36909 8.30497 -0.26773
40 1 0.0 10.6089 9.03367 0.238148
41 1 0.0 10.6059 10.4755 -0.260387
42 1 0.0 9.35156 11.1943 0.212497
43 1 0.0 11.8702 8.31854 -0.235421
44 1 0.0 13.1105 9.04997 0.273999
45 1 0.0 13.1042 10.5004 -0.199447
46 1 0.0 11.8349 11.2028 0.257684
47 1 0.0 14.295 11.2572 0.356389
48 1 0.0 -13.1248 6.87761 0.26954
49 1 0.0 -11.8788 6.14996 -0.232798
50 1 0.0 -10.6202 6.86696 0.245789
51 1 0.0 -14.368 6.14904 -0.221356
52 1 0.0 -14.3665 4.71771 0.287179
53 1 0.0 -13.137 3.98152 -0.227114
54 1 0.0 -11.878 4.7008 0.252052
55 1 0.0 -13.1361 2.53364 0.251628
56 1 0.0 -11.884 1.80966 -0.239702
57 1 0.0 -10.631 2.53105 0.247506
58 1 0.0 -10.6314 3.97526 -0.246484
59 1 0.0 -14.3732 1.8012 -0.248704
60 1 0.0 -14.3729 0.371746 0.264101
61 1 0.0 -13.1382 -0.361976 -0.240481
62 1 0.0 -11.8837 0.360783 0.246142
63 1 0.0 -13.1382 -1.80927 0.239682
64 1 0.0 -11.8821 -2.53065 -0.244316
65 1 0.0 -10.6329 -1.80638 0.249202
66 1 0.0 -10.6329 -0.362127 -0.244945
67 1 0.0 -14.3711 -2.54426 -0.267739
68 1 0.0 -14.3716 -3.97405 0.244468
69 1 0.0 -13.1325 -4.70527 -0.252729
70 1 0.0 -11.8824 -3.97952 0.241551
71 1 0.0 -13.133 -6.15363 0.225316
72 1 0.0 -11.871 -6.86995 -0.250102
73 1 0.0 -10.6272 -6.14279 0.252383
74 1 0.0 -10.6273 -4.6992 -0.242665
75 1 0.0 -14.3591 -6.89307 -0.293266
76 1 0.0 -14.3589 -8.3263 0.211358
77 1 0.0 -13.1105 -9.04997 -0.274033
78 1 0.0 -11.8702 -8.31854 0.235395
79 1 0.0 -13.1042 -10.5004 0.199414
80 1 0.0 -11.8349 -11.2028 -0.257709
81 1 0.0 -10.6059 -10.4755 0.26037
82 1 0.0 -10.6089 -9.03367 -0.238165
83 1 0.0 -14.295 -11.2572 -0.356429
84 1 0.0 -9.35156 -11.1943 -0.212506
85 1 0.0 -8.11167 -10.4691 0.286225
86 1 0.0 -8.11397 -9.02677 -0.212549
87 1 0.0 -9.36909 -8.30497 0.26772
88 1 0.0 -6.86133 -11.1903 -0.195043
89 1 0.0 -5.61652 -10.4667 0.295865
90 1 0.0 -5.61834 -9.02414 -0.202503
91 1 0.0 -6.86955 -8.30004 0.283855
92 1 0.0 -4.3678 -11.1886 -0.189523
93 1 0.0 -3.12052 -10.4659 0.297825
94 1 0.0 -3.12175 -9.02319 -0.200086
95 1 0.0 -4.37123 -8.29846 0.28931
96 1 0.0 -1.8724 -11.188 -0.189292
97 1 0.0 -0.624087 -10.4658 0.296875
98 1 0.0 -0.624563 -9.02292 -0.200622
99 1 0.0 -1.87332 -8.29806 0.28998
100 1 0.0 0.623758 -11.1878 -0.190862
101 1 0.0 1.8724 -10.4659 0.29511
102 1 0.0 1.87277 -9.02298 -0.202121
103 1 0.0 0.624474 -8.29808 0.289007
104 1 0.0 3.11969 -11.1881 -0.193359
105 1 0.0 4.3686 -10.4665 0.292144
106 1 0.0 4.36976 -9.02349 -0.204933
107 1 0.0 3.12227 -8.29838 0.287187
108 1 0.0 5.61435 -11.1891 -0.198518
109 1 0.0 6.86411 -10.4681 0.285087
110 1 0.0 6.86605 -9.0251 -0.211692
111 1 0.0 5.62024 -8.29939 0.28305
112 1 0.0 8.10647 -11.1918 -0.210958
113 1 0.0 9.35859 -10.4728 0.268279
114 1 0.0 9.36165 -9.02922 -0.226948
115 1 0.0 8.11873 -8.30225 0.272941
116 1 0.0 10.5942 -11.1988 -0.238579
117 1 0.0 11.8516 -10.4847 0.232338
118 1 0.0 11.8569 -9.03871 -0.258387
119 1 0.0 10.6189 -8.30925 0.251331
120 1 0.0 13.0767 -11.2186 -0.287837
121 1 0.0 14.3429 -10.5091 0.164011
122 1 0.0 14.3423 -9.07162 -0.330885
123 1 0.0 13.126 -8.32736 0.205289
124 1 0.0 13.1248 -6.87761 -0.269558
125 1 0.0 11.8788 -6.14996 0.232783
126 1 0.0 10.6202 -6.86696 -0.245796
127 1 0.0 14.368 -6.14904 0.221329
128 1 0.0 14.3665 -4.71771 -0.287209
129 1 0.0 13.137 -3.98152 0.227088
130 1 0.0 11.878 -4.7008 -0.252069
131 1 0.0 13.1361 -2.53364 -0.251656
132 1 0.0 11.884 -1.80966 0.23968
133 1 0.0 10.631 -2.53105 -0.24752
134 1 0.0 10.6314 -3.97526 0.246471
135 1 0.0 14.3732 -1.8012 0.248667
136 1 0.0 14.3729 -0.371746 -0.264141
137 1 0.0 13.1382 0.361976 0.240448
138 1 0.0 11.8837 -0.360783 -0.246167
139 1 0.0 13.1382 1.80927 -0.239716
140 1 0.0 11.8821 2.53065 0.24429
141 1 0.0 10.6329 1.80638 -0.24922
142 1 0.0 10.6329 0.362127 0.244928
143 1 0.0 14.3711 2.54426 0.267696
144 1 0.0 14.3716 3.97405 -0.244512
145 1 0.0 13.1325 4.70527 0.252694
146 1 0.0 11.8824 3.97952 -0.241578
147 1 0.0 13.133 6.15363 -0.225351
148 1 0.0 11.871 6.86995 0.250076
149 1 0.0 10.6272 6.14279 -0.252401
150 1 0.0 10.6273 4.6992 0.242647
151 1 0.0 14.3591 6.89307 0.293223
152 1 0.0 14.3589 8.3263 -0.2114
153 1 0.0 -9.37649 6.13969 -0.255994
154 1 0.0 -8.12099 6.86054 0.225798
155 1 0.0 -9.37704 4.69622 0.238536
156 1 0.0 -9.38244 1.80605 -0.24706
157 1 0.0 -8.12961 2.5283 0.239973
158 1 0.0 -8.12927 3.97102 -0.256467
159 1 0.0 -9.38234 0.361692 0.246064
160 1 0.0 -9.3808 -2.52896 -0.239479
161 1 0.0 -8.13104 -1.8046 0.252295
162 1 0.0 -8.1312 -0.361655 -0.243825
163 1 0.0 -9.3806 -3.97296 0.254352
164 1 0.0 -9.37099 -6.86264 -0.229237
165 1 0.0 -8.12531 -6.1364 0.267773
166 1 0.0 -8.12647 -4.69443 -0.230325
167 1 0.0 -6.87179 -6.8589 -0.216373
168 1 0.0 -4.37307 -6.85727 -0.21094
169 1 0.0 -5.62437 -6.13341 0.276308
170 1 0.0 -5.62586 -4.69234 -0.223708
171 1 0.0 -6.87825 -3.96927 0.262803
172 1 0.0 -6.87894 -2.52748 -0.235501
173 1 0.0 -6.88014 0.361867 0.245638
174 1 0.0 -6.88002 1.804 -0.25185
175 1 0.0 -5.6289 -1.80326 0.254943
176 1 0.0 -5.62916 -0.361748 -0.243759
177 1 0.0 -5.62803 2.52709 0.235802
178 1 0.0 -5.62735 3.96852 -0.263111
179 1 0.0 -6.87601 4.69327 0.229153
180 1 0.0 -6.87467 6.13482 -0.269621
181 1 0.0 -5.62221 6.85786 0.216221
182 1 0.0 -4.37424 6.13295 -0.275819
183 1 0.0 -3.12342 6.85688 0.212227
184 1 0.0 -1.87456 6.13232 -0.278376
185 1 0.0 -0.624563 6.85661 0.210542
186 1 0.0 0.624825 6.13217 -0.279429
187 1 0.0 1.8743 6.85671 0.209877
188 1 0.0 3.12433 6.13238 -0.27926
189 1 0.0 4.37307 6.85727 0.210956
190 1 0.0 5.62437 6.13341 -0.276297
191 1 0.0 6.87179 6.8589 0.216377
192 1 0.0 8.12531 6.1364 -0.267776
193 1 0.0 9.37099 6.86264 0.229227
194 1 0.0 9.38059 3.97296 -0.254362
195 1 0.0 9.3808 2.52896 0.239468
196 1 0.0 8.12647 4.69443 0.230322
197 1 0.0 8.13104 1.8046 -0.252298
198 1 0.0 8.13121 0.361655 0.243823
199 1 0.0 9.38234 -0.361692 -0.246073
200 1 0.0 9.38244 -1.80605 0.247053
201 1 0.0 8.12961 -2.5283 -0.239974
202 1 0.0 8.12927 -3.97102 0.256467
203 1 0.0 9.37704 -4.69622 -0.238541
204 1 0.0 9.37649 -6.13969 0.255991
205 1 0.0 8.12099 -6.86054 -0.225794
206 1 0.0 6.87467 -6.13482 0.269629
207 1 0.0 5.62221 -6.85786 -0.216208
208 1 0.0 4.37424 -6.13295 0.275836
209 1 0.0 3.12342 -6.85688 -0.212207
210 1 0.0 1.87456 -6.13232 0.278399
211 1 0.0 0.624563 -6.85661 -0.210518
212 1 0.0 -0.624825 -6.13217 0.279453
213 1 0.0 -1.8743 -6.85671 -0.209854
214 1 0.0 -3.12433 -6.13238 0.279279
215 1 0.0 -3.12545 -4.69152 -0.221177
216 1 0.0 -4.3766 -3.96768 0.266856
217 1 0.0 -4.37737 -2.52674 -0.233133
218 1 0.0 -4.37809 0.361911 0.245068
219 1 0.0 -4.37792 1.80301 -0.254414
220 1 0.0 -3.12697 -1.80266 0.256166
221 1 0.0 -3.12721 -0.361864 -0.243938
222 1 0.0 -3.12655 2.52661 0.233672
223 1 0.0 -3.12603 3.96745 -0.266428
224 1 0.0 -4.37546 4.69185 0.224019
225 1 0.0 -1.87511 4.69135 0.221771
226 1 0.0 -0.625193 3.96712 -0.267819
227 1 0.0 0.625167 4.69127 0.220909
228 1 0.0 1.87555 3.96715 -0.268085
229 1 0.0 3.12545 4.69152 0.221197
230 1 0.0 4.3766 3.96768 -0.26684
231 1 0.0 5.62586 4.69234 0.223718
232 1 0.0 6.87825 3.96927 -0.262799
233 1 0.0 6.87894 2.52748 0.235506
234 1 0.0 6.88014 -0.361867 -0.245633
235 1 0.0 6.88002 -1.804 0.251855
236 1 0.0 6.876 -4.69327 -0.229146
237 1 0.0 5.62803 -2.52709 -0.235791
238 1 0.0 5.62735 -3.96852 0.263123
239 1 0.0 5.62889 1.80326 -0.254932
240 1 0.0 5.62916 0.361748 0.24377
241 1 0.0 4.37737 2.52674 0.233149
242 1 0.0 1.87601 2.52648 0.232436
243 1 0.0 3.12697 1.80266 -0.256146
244 1 0.0 -0.62525 2.52646 0.23269
245 1 0.0 0.625359 1.80249 -0.25628
246 1 0.0 -1.87618 1.80259 -0.255724
247 1 0.0 -1.87624 0.361939 0.244642
248 1 0.0 -1.87555 -3.96715 0.268107
249 1 0.0 -1.87601 -2.52648 -0.232413
250 1 0.0 -0.625167 -4.69127 -0.220885
251 1 0.0 1.87511 -4.69135 -0.221748
252 1 0.0 0.625193 -3.96712 0.267844
253 1 0.0 4.37546 -4.69185 -0.224003
254 1 0.0 3.12603 -3.96745 0.266449
255 1 0.0 4.37792 -1.80301 0.25443
256 1 0.0 3.12655 -2.52661 -0.233651
257 1 0.0 4.37808 -0.361912 -0.245051
258 1 0.0 3.12721 0.361864 0.243958
259 1 0.0 0.625458 0.361926 0.244269
260 1 0.0 1.87624 -0.361939 -0.244619
261 1 0.0 -0.625457 -0.361926 -0.244244
262 1 0.0 -0.625359 -1.80249 0.256304
263 1 0.0 0.62525 -2.52646 -0.232666
264 1 0.0 1.87618 -1.80259 0.255747
265 2 0.0 -11.399 8.77063 -1.04032
266 3 0.0 -11.9936 9.2328 -1.68541
267 2 0.0 -6.70668 9.50734 1.113914
268 2 0.0 1.862715 -1.192486 1.182169
269 2 0.0 -13.4688 8.44857 1.151274
270 3 0.0 -14.3976 8.12145 1.269816
271 2 0.0 -3.56076 8.57903 -1.207965
272 2 0.0 0.853796 9.715485 -1.211214
273 2 0.0 3.39209 8.97273 -1.177977
274 3 0.0 3.87594 9.79024 -1.459167
275 2 0.0 1.654 8.22807 1.096221
276 3 0.0 1.40643 9.12572 1.437051
277 2 0.0 8.47768 9.48542 1.061155
278 2 0.0 11.1457 8.707485 -1.17834
279 2 0.0 -0.584142 6.85362 1.613064
280 3 0.0 -1.395391 7.30609 1.958564
281 2 0.0 0.513391 6.05981 -1.677407
282 3 0.0 0.646789 6.95832 -2.075427
283 2 0.0 -13.4853 3.76718 1.114385
284 3 0.0 -14.3694 3.3184 1.133369
285 2 0.0 -11.4248 4.85658 -1.070992
286 3 0.0 -12.1436 5.23622 -1.636752
287 2 0.0 -8.910825 4.389565 1.164364
288 2 0.0 -6.5811 5.0348 1.56204
289 3 0.0 -6.60334 4.21775 2.12343
290 2 0.0 -7.02336 5.83338 -1.633039
291 3 0.0 -7.11005 6.68404 -2.134449
292 2 0.0 -3.28853 4.25244 1.098935
293 3 0.0 -2.90625 5.1417 1.306805
294 2 0.0 -1.69418 4.17299 -1.071418
295 3 0.0 -2.39652 4.54026 -1.667638
296 2 0.0 1.82795 4.18651 1.12229
297 3 0.0 1.38552 5.05311 1.31303
298 2 0.0 3.1463 4.56994 -1.179038
299 3 0.0 3.81352 5.20287 -1.548128
300 2 0.0 6.419275 4.34808 1.151788
301 2 0.0 8.8241 4.76421 1.448468
302 3 0.0 8.44955 5.49502 2.003768
303 2 0.0 7.66456 5.9826 -1.58714
304 3 0.0 7.52149 6.87859 -1.98603
305 2 0.0 11.8268 4.24761 1.137465
306 3 0.0 12.346 5.06241 1.355076
307 2 0.0 13.2824 4.16032 -1.031516
308 3 0.0 12.4896 4.4084 -1.573566
309 2 0.0 -9.61513 1.85604 1.138301
310 3 0.0 -10.58195 1.74261 1.321211
311 2 0.0 -7.85263 2.53702 -1.139235
312 3 0.0 -8.16324 1.70386 -1.574125
313 2 0.0 -1.474196 2.38471 1.12575
314 2 0.0 5.99683 1.65471 1.093225
315 3 0.0 5.43754 2.23457 1.670205
316 2 0.0 6.49565 2.5308 -1.11797
317 3 0.0 7.07197 3.1506 -1.63335
318 2 0.0 13.5859 2.354615 1.168312
319 3 0.0 13.199 -7.56346 -1.598091
320 2 0.0 -7.16606 -0.166345 -1.124801
321 2 0.0 -4.97824 0.258934 1.163203
322 2 0.0 -2.92604 -0.414139 -1.634561
323 3 0.0 -3.76225 -0.713348 -2.076073
324 2 0.0 -13.47275 -1.027502 1.124228
325 2 0.0 -3.26119 -1.82861 1.656626
326 3 0.0 -2.54102 -1.29454 2.077586
327 3 0.0 11.8699 -9.92928 1.490996
328 2 0.0 12.5023 -9.40789 0.932647
329 2 0.0 6.236205 -8.548725 1.210717
330 3 0.0 3.74798 -7.32521 -1.316775
331 2 0.0 6.638965 -1.133895 -1.151054
332 2 0.0 12.5282 -8.02084 -1.028621
333 2 0.0 -6.95266 -3.50155 1.168734
334 2 0.0 -3.524895 -4.291125 -1.138264
335 2 0.0 0.681985 -3.005325 -1.146241
336 2 0.0 3.12959 -3.72459 -1.117224
337 3 0.0 3.42246 -4.54619 -1.588897
338 2 0.0 1.90456 -5.01013 1.146339
339 3 0.0 1.85331 -4.17503 1.678079
340 2 0.0 8.47641 -3.232075 1.151281
341 2 0.0 11.414 -4.43932 -1.172435
342 2 0.0 -13.6482 -5.01254 1.016937
343 3 0.0 -14.5323 -5.44578 0.897656
344 2 0.0 -11.4204 -3.5882 -1.025555
345 3 0.0 -11.0602 -4.3839 -1.495235
346 2 0.0 -11.0251 -5.58212 1.111976
347 2 0.0 -0.331457 -6.51312 1.595593
348 3 0.0 -1.013382 -6.10994 2.191663
349 2 0.0 0.372618 -6.34473 -1.493959
350 3 0.0 -0.464533 -6.72119 -1.862379
351 2 0.0 -13.8245 -9.36016 0.896361
352 3 0.0 -13.9807 -8.5368 1.424774
353 2 0.0 -11.1839 -8.14823 -0.979545
354 3 0.0 -10.4739 -7.46604 -0.874645
355 2 0.0 -8.982135 -8.81053 1.172442
356 2 0.0 -6.76616 -8.2523 1.687031
357 3 0.0 -6.76293 -9.17881 2.040801
358 2 0.0 -6.88917 -6.84549 -1.62345
359 3 0.0 -6.01533 -7.14726 -1.97939
360 2 0.0 -2.69697 -9.22283 1.122948
361 3 0.0 -3.36037 -9.80106 1.580548
362 2 0.0 -2.2441 -8.20852 -1.063465
363 3 0.0 -1.53054 -8.56932 -1.649155
364 2 0.0 1.77606 -9.11319 1.198646
365 3 0.0 1.00191 -9.67738 1.450696
366 2 0.0 3.22724 -8.14108 -1.106105
367 2 0.0 9.59114 -0.510405 1.134959
368 3 0.0 9.59006 0.381294 1.566729
369 2 0.0 10.3737 0.40116 -1.135893
370 3 0.0 11.1199 0.872811 -1.588523
371 2 0.0 8.58091 -8.09565 1.586018
372 3 0.0 8.74542 -8.97956 2.004978
373 2 0.0 7.82384 -7.08036 -1.58242
374 3 0.0 7.63804 -6.21079 -2.02019
