LAMMPS data file

374 atoms
3 atom types

-20.0 20.0 xlo xhi
-20.0 20.0 ylo yhi
-20.0 20.0 zlo zhi

Atoms  # charge

1 1 0.0 -14.2651 10.4507 -1.12213
2 1 0.0 -14.1283 8.95336 -1.39469
3 1 0.0 -13.1488 8.24931 -0.453409
4 1 0.0 -11.7628 8.91628 -0.598179
5 1 0.0 -11.859 10.4518 -0.43657
6 1 0.0 -13.2455 10.9955 -0.129383
7 1 0.0 -10.8341 8.31584 0.46124
8 1 0.0 -9.47366 9.01815 0.633305
9 1 0.0 -9.45546 10.4507 0.110014
10 1 0.0 -10.7769 11.1319 0.393832
11 1 0.0 -8.30194 8.28335 -0.0074548
12 1 0.0 -6.97543 9.0004 0.216246
13 1 0.0 -6.9461 10.4809 0.439518
14 1 0.0 -8.25873 11.2317 0.648619
15 1 0.0 -5.72776 8.27621 -0.248026
16 1 0.0 -4.43895 9.06821 -0.0887028
17 1 0.0 -4.47185 10.5867 -0.271381
18 1 0.0 -5.62988 11.25 0.474716
19 1 0.0 -3.13815 8.34502 0.0984599
20 1 0.0 -1.873 9.12896 0.391631
21 1 0.0 -1.91476 10.5163 -0.244917
22 1 0.0 -3.17539 11.2566 0.189634
23 1 0.0 -0.710998 8.32523 -0.180259
24 1 0.0 0.615802 9.0611 -0.0755135
25 1 0.0 0.644699 10.5599 0.011133
26 1 0.0 -0.673567 11.325 0.123877
27 1 0.0 1.8771 8.29518 0.340774
28 1 0.0 3.16952 9.0472 -0.0320488
29 1 0.0 3.11645 10.4094 0.671666
30 1 0.0 1.95884 11.3055 0.233627
31 1 0.0 4.36969 8.25274 0.482425
32 1 0.0 5.71089 8.96362 0.676364
33 1 0.0 5.66097 10.4417 0.29631
34 1 0.0 4.42728 11.1826 0.797106
35 1 0.0 6.80316 8.31038 -0.166799
36 1 0.0 8.15405 8.98887 -0.0104476
37 1 0.0 8.20669 10.4411 0.344915
38 1 0.0 6.92663 11.1638 0.752578
39 1 0.0 9.32618 8.37048 -0.750177
40 1 0.0 10.6386 9.13233 -0.599632
41 1 0.0 10.6056 10.6609 -0.550465
42 1 0.0 9.50949 11.2252 0.34799
43 1 0.0 11.9389 8.38283 -0.653378
44 1 0.0 13.2178 9.12012 -0.283961
45 1 0.0 13.1508 10.594 -0.675555
46 1 0.0 11.9245 11.2444 -0.0523428
47 1 0.0 14.386 11.3288 -0.192974
48 1 0.0 -13.0163 6.77217 -0.822335
49 1 0.0 -12.039 6.00469 0.0651102
50 1 0.0 -10.7777 6.77953 0.509254
51 1 0.0 -14.3372 6.0078 -0.860883
52 1 0.0 -14.1366 4.60567 -1.42948
53 1 0.0 -13.0794 3.80489 -0.660959
54 1 0.0 -11.7772 4.63784 -0.605515
55 1 0.0 -12.7865 2.47471 -1.37725
56 1 0.0 -11.6064 1.66851 -0.83235
57 1 0.0 -10.4109 2.51686 -0.41167
58 1 0.0 -10.7559 3.86094 0.211368
59 1 0.0 -13.9678 1.57419 -1.72854
60 1 0.0 -14.3238 0.59358 -0.621139
61 1 0.0 -13.1234 -0.252099 -0.218508
62 1 0.0 -11.8329 0.479964 0.0957988
63 1 0.0 -13.1582 -1.75504 -0.0688857
64 1 0.0 -11.9563 -2.55872 0.443412
65 1 0.0 -10.6742 -1.73981 0.735409
66 1 0.0 -10.6138 -0.438988 -0.0694423
67 1 0.0 -14.3948 -2.51313 -0.528158
68 1 0.0 -14.0132 -3.75008 -1.33202
69 1 0.0 -13.0583 -4.63992 -0.534235
70 1 0.0 -11.7377 -3.85496 -0.344451
71 1 0.0 -12.7515 -5.9614 -1.26662
72 1 0.0 -11.8904 -6.86269 -0.37856
73 1 0.0 -10.6995 -6.14129 0.241371
74 1 0.0 -10.6837 -4.65791 0.428378
75 1 0.0 -14.0041 -6.72504 -1.69149
76 1 0.0 -13.6651 -8.08416 -2.30054
77 1 0.0 -12.8642 -8.9571 -1.3291
78 1 0.0 -11.5506 -8.23345 -0.994826
79 1 0.0 -12.4911 -10.2991 -1.97032
80 1 0.0 -11.7619 -11.2057 -0.980529
81 1 0.0 -10.5914 -10.5493 -0.25663
82 1 0.0 -10.769 -9.0589 0.0347494
83 1 0.0 -13.7071 -11.0477 -2.48554
84 1 0.0 -9.20349 -10.9791 -0.714012
85 1 0.0 -8.16773 -10.6213 0.351964
86 1 0.0 -8.17135 -9.10981 0.591021
87 1 0.0 -9.48009 -8.37179 0.469051
88 1 0.0 -6.8027 -11.1779 -0.0471609
89 1 0.0 -5.6793 -10.5507 0.765434
90 1 0.0 -5.64262 -9.07461 0.390311
91 1 0.0 -6.87398 -8.36267 0.973837
92 1 0.0 -4.35841 -11.3031 0.605949
93 1 0.0 -3.23203 -10.4739 0.00178221
94 1 0.0 -3.04368 -9.10158 0.662125
95 1 0.0 -4.37928 -8.36847 0.868704
96 1 0.0 -1.91504 -11.2453 0.00278335
97 1 0.0 -0.778222 -10.4754 -0.66667
98 1 0.0 -0.704287 -9.0233 -0.185331
99 1 0.0 -2.06452 -8.31323 -0.235664
100 1 0.0 0.528134 -11.2013 -0.379503
101 1 0.0 1.72866 -10.4418 -0.927639
102 1 0.0 1.80357 -8.99068 -0.420626
103 1 0.0 0.49336 -8.27613 -0.789033
104 1 0.0 3.00584 -11.258 -0.723084
105 1 0.0 4.16693 -10.4366 -0.181794
106 1 0.0 4.29126 -9.11713 -0.940091
107 1 0.0 2.98862 -8.2979 -1.11213
108 1 0.0 5.48191 -11.2096 -0.247982
109 1 0.0 6.63611 -10.4879 0.452608
110 1 0.0 6.69018 -9.0031 0.0953572
111 1 0.0 5.47358 -8.29819 -0.445268
112 1 0.0 7.95166 -11.1837 0.115766
113 1 0.0 9.16256 -10.4622 0.699078
114 1 0.0 9.23094 -9.04664 0.138225
115 1 0.0 7.97603 -8.21519 0.41733
116 1 0.0 10.4361 -11.2501 0.378382
117 1 0.0 11.6486 -10.3749 0.0521506
118 1 0.0 11.7315 -9.07446 0.855825
119 1 0.0 10.4352 -8.27181 0.675413
120 1 0.0 12.955 -11.1558 -0.0491153
121 1 0.0 14.0867 -10.5956 0.807673
122 1 0.0 14.2357 -9.07293 0.792262
123 1 0.0 12.9804 -8.29286 0.388472
124 1 0.0 12.9322 -6.89995 1.03528
125 1 0.0 11.638 -6.11547 0.793141
126 1 0.0 10.6064 -6.91672 0.00496996
127 1 0.0 14.2145 -6.09147 1.25688
128 1 0.0 14.2762 -4.74369 0.541723
129 1 0.0 13.0183 -3.91736 0.776488
130 1 0.0 11.8676 -4.72746 0.210191
131 1 0.0 13.1453 -2.508 0.197262
132 1 0.0 11.7894 -1.79811 0.12355
133 1 0.0 10.8133 -2.54347 -0.790379
134 1 0.0 10.7096 -4.03229 -0.446239
135 1 0.0 14.1079 -1.7209 1.08027
136 1 0.0 14.2675 -0.282563 0.612902
137 1 0.0 12.9169 0.417892 0.593115
138 1 0.0 11.972 -0.344513 -0.330723
139 1 0.0 13.0246 1.9154 0.29703
140 1 0.0 11.8897 2.58981 -0.480468
141 1 0.0 10.5895 1.84041 -0.259794
142 1 0.0 10.6975 0.391156 -0.790189
143 1 0.0 14.2752 2.71615 0.570874
144 1 0.0 14.2417 4.2135 0.254087
145 1 0.0 13.1782 4.66709 -0.750718
146 1 0.0 11.8093 4.1066 -0.279206
147 1 0.0 13.1597 6.19809 -0.942563
148 1 0.0 11.8815 6.87311 -0.461392
149 1 0.0 10.6299 6.25301 -1.0912
150 1 0.0 10.6892 4.71375 -1.12751
151 1 0.0 14.4366 6.94081 -0.54966
152 1 0.0 14.3827 8.40783 -0.959751
153 1 0.0 -9.46829 6.13436 0.077252
154 1 0.0 -8.22358 6.87214 0.551842
155 1 0.0 -9.47762 4.65523 0.435269
156 1 0.0 -9.3821 1.79002 0.464493
157 1 0.0 -8.05046 2.54122 0.261795
158 1 0.0 -8.16172 3.9919 0.74144
159 1 0.0 -9.28988 0.337234 0.0227712
160 1 0.0 -9.36892 -2.52199 0.496267
161 1 0.0 -8.18438 -1.79258 1.13752
162 1 0.0 -8.06327 -0.399059 0.53548
163 1 0.0 -9.42438 -3.97676 0.943009
164 1 0.0 -9.37414 -6.86828 0.348727
165 1 0.0 -8.15379 -6.17187 0.929018
166 1 0.0 -8.18836 -4.72104 0.444731
167 1 0.0 -6.8963 -6.91297 0.432803
168 1 0.0 -4.36318 -6.89422 0.485133
169 1 0.0 -5.63545 -6.17858 0.932766
170 1 0.0 -5.62362 -4.73747 0.436183
171 1 0.0 -6.90016 -4.03568 0.845084
172 1 0.0 -6.85993 -2.56621 1.12525
173 1 0.0 -6.8095 0.348686 0.877931
174 1 0.0 -6.92512 1.86027 1.03696
175 1 0.0 -5.53834 -1.87701 1.45792
176 1 0.0 -5.56201 -0.356722 1.35355
177 1 0.0 -5.60691 2.62867 1.20639
178 1 0.0 -5.64311 4.00477 0.556803
179 1 0.0 -6.88693 4.81291 0.965671
180 1 0.0 -6.94786 6.10938 0.143741
181 1 0.0 -5.69001 6.93059 0.468764
182 1 0.0 -4.42458 6.13932 0.152971
183 1 0.0 -3.15841 6.88376 0.512058
184 1 0.0 -1.96665 6.14536 -0.0985918
185 1 0.0 -0.636213 6.84245 0.235646
186 1 0.0 0.506887 6.16859 -0.561422
187 1 0.0 1.84656 6.90717 -0.30467
188 1 0.0 3.18318 6.18301 -0.421843
189 1 0.0 4.34875 6.72244 0.423077
190 1 0.0 5.61415 6.17269 -0.226215
191 1 0.0 6.94052 6.82721 0.148075
192 1 0.0 8.10267 6.15532 -0.623125
193 1 0.0 9.42987 6.88763 -0.381981
194 1 0.0 9.32637 4.02609 -1.01648
195 1 0.0 9.40062 2.49678 -0.956337
196 1 0.0 8.287 4.70633 -0.125619
197 1 0.0 8.14257 1.79712 -0.452859
198 1 0.0 8.19712 0.367293 -0.972331
199 1 0.0 9.41947 -0.380762 -0.395482
200 1 0.0 9.48121 -1.79784 -0.985088
201 1 0.0 8.19314 -2.57343 -0.713856
202 1 0.0 8.18197 -4.05412 -0.614284
203 1 0.0 9.4622 -4.83448 -0.821298
204 1 0.0 9.30774 -6.12623 -0.0131116
205 1 0.0 8.09891 -6.96025 -0.472996
206 1 0.0 6.81522 -6.14672 -0.306825
207 1 0.0 5.63004 -6.87555 -0.93792
208 1 0.0 4.3149 -6.09218 -0.949135
209 1 0.0 3.09308 -6.90028 -0.487543
210 1 0.0 1.82068 -6.05296 -0.619328
211 1 0.0 0.428746 -6.72968 -0.682397
212 1 0.0 -0.519438 -6.25356 0.445014
213 1 0.0 -1.91115 -6.8659 0.241404
214 1 0.0 -3.08171 -6.26039 1.01254
215 1 0.0 -3.03981 -4.74997 0.830774
216 1 0.0 -4.33307 -3.99682 0.740009
217 1 0.0 -4.34064 -2.47283 0.722877
218 1 0.0 -4.29826 0.434439 1.19213
219 1 0.0 -4.34711 1.90185 0.748351
220 1 0.0 -3.0603 -1.82607 1.26482
221 1 0.0 -3.05923 -0.361168 0.768709
222 1 0.0 -3.13022 2.62648 1.33262
223 1 0.0 -3.04074 4.16368 1.14895
224 1 0.0 -4.41913 4.827 0.930035
225 1 0.0 -2.02173 4.60289 0.0624069
226 1 0.0 -0.635568 4.10231 0.487567
227 1 0.0 0.577758 4.6496 -0.268802
228 1 0.0 1.9104 4.09742 0.277744
229 1 0.0 3.06622 4.66073 -0.568633
230 1 0.0 4.31149 3.93409 -0.0758694
231 1 0.0 5.63537 4.65974 -0.150761
232 1 0.0 6.95347 3.94424 -0.200112
233 1 0.0 6.85322 2.53065 -0.794345
234 1 0.0 6.86865 -0.376968 -0.888865
235 1 0.0 6.8603 -1.87056 -0.904888
236 1 0.0 6.85486 -4.75086 -0.894686
237 1 0.0 5.52786 -2.58299 -0.78951
238 1 0.0 5.69951 -3.99272 -0.261674
239 1 0.0 5.64876 1.7517 -0.227022
240 1 0.0 5.54547 0.386203 -0.899958
241 1 0.0 4.3618 2.50924 -0.589467
242 1 0.0 1.92881 2.5494 0.303764
243 1 0.0 3.04423 1.75837 -0.390481
244 1 0.0 -0.569797 2.60397 0.721822
245 1 0.0 0.611521 1.79315 0.206066
246 1 0.0 -1.81947 1.86216 1.10535
247 1 0.0 -1.79972 0.339099 1.28277
248 1 0.0 -1.74377 -4.02213 1.14408
249 1 0.0 -1.8187 -2.54681 0.72701
250 1 0.0 -0.667618 -4.72532 0.319999
251 1 0.0 1.9526 -4.75511 0.200438
252 1 0.0 0.641147 -3.97378 0.201351
253 1 0.0 4.39051 -4.77439 -0.177513
254 1 0.0 3.1323 -3.92535 -0.351022
255 1 0.0 4.56734 -1.79051 0.0956988
256 1 0.0 3.32183 -2.62723 0.440796
257 1 0.0 4.278 -0.422444 -0.534605
258 1 0.0 3.28246 0.411796 0.287458
259 1 0.0 0.710058 0.440669 0.909272
260 1 0.0 1.9834 -0.333004 0.563285
261 1 0.0 -0.577771 -0.34666 0.654726
262 1 0.0 -0.532034 -1.81033 1.10223
263 1 0.0 0.694524 -2.51978 0.542781
264 1 0.0 2.03885 -1.83139 0.62067
265 2 0.0 -11.199 8.64058 -1.85307
266 3 0.0 -11.7496 9.08185 -2.54978
267 2 0.0 -6.85342 9.54417 1.49267
268 2 0.0 2.19407 -1.04959 1.75686
269 2 0.0 -13.5985 8.37198 0.871356
270 3 0.0 -14.5275 8.02797 0.918894
271 2 0.0 -3.65396 8.58882 -1.16586
272 2 0.0 0.743799 9.87381 -1.21054
273 2 0.0 3.26024 9.18266 -1.42582
274 3 0.0 4.056 9.73132 -1.64312
275 2 0.0 1.85223 8.08512 1.72904
276 3 0.0 1.59828 8.92751 2.18655
277 2 0.0 8.41935 9.40875 1.28883
278 2 0.0 11.3234 8.84506 -1.80702
279 2 0.0 -0.379732 6.72323 1.61039
280 3 0.0 -1.06322 7.23609 2.11257
281 2 0.0 0.218696 6.24512 -1.93287
282 3 0.0 0.370237 7.17076 -2.25461
283 2 0.0 -13.527 3.56311 0.646294
284 3 0.0 -14.4191 3.13358 0.592544
285 2 0.0 -11.2196 4.82408 -1.88409
286 3 0.0 -11.9029 5.17766 -2.50785
287 2 0.0 -9.08693 4.33592 1.74171
288 2 0.0 -6.78531 5.15936 2.32605
289 3 0.0 -6.75954 4.32831 2.86684
290 2 0.0 -6.9753 5.7811 -1.22258
291 3 0.0 -7.11055 6.60925 -1.75002
292 2 0.0 -2.55488 4.68276 2.35903
293 3 0.0 -3.1861 4.43501 3.08379
294 2 0.0 -2.335 4.02427 -1.17544
295 3 0.0 -3.20843 4.38109 -1.47862
296 2 0.0 2.08455 4.45544 1.62487
297 3 0.0 1.80665 5.39302 1.77439
298 2 0.0 2.83537 4.3768 -1.92323
299 3 0.0 3.62979 4.67801 -2.4357
300 2 0.0 6.27843 4.19262 1.00205
301 2 0.0 8.78336 4.64837 1.18798
302 3 0.0 8.33166 5.33115 1.74672
303 2 0.0 7.8074 6.1218 -1.99736
304 3 0.0 7.69616 7.04883 -2.32958
305 2 0.0 11.5175 4.36907 1.07113
306 3 0.0 12.0434 5.14093 1.4007
307 2 0.0 13.5441 4.12056 -1.99011
308 3 0.0 12.8527 4.36439 -2.6582
309 2 0.0 -9.70785 1.79266 1.83268
310 3 0.0 -10.6911 1.7793 1.95171
311 2 0.0 -7.68309 2.61842 -1.09281
312 3 0.0 -7.91785 1.78272 -1.56862
313 2 0.0 -0.89369 2.34195 2.05181
314 2 0.0 5.81311 1.55568 1.15634
315 3 0.0 5.06623 1.96987 1.65946
316 2 0.0 6.7037 2.60883 -2.18986
317 3 0.0 7.34368 3.26836 -2.56038
318 2 0.0 13.2822 2.5129 1.53743
319 3 0.0 13.7611 -7.63181 -1.27148
320 2 0.0 -7.04804 -0.168997 -0.404414
321 2 0.0 -4.87456 0.210185 2.44923
322 2 0.0 -2.99956 -0.332986 -0.63609
323 3 0.0 -3.87034 -0.625274 -1.01011
324 2 0.0 -13.5269 -0.889882 0.961498
325 2 0.0 -3.08274 -1.91348 2.66787
326 3 0.0 -2.27958 -1.46972 3.04151
327 3 0.0 11.0627 -9.81569 2.55254
328 2 0.0 11.8759 -9.35279 2.22503
329 2 0.0 5.68552 -8.42366 0.915405
330 3 0.0 3.48752 -7.74555 -2.92114
331 2 0.0 6.85221 -1.12715 -2.07822
332 2 0.0 12.962 -8.15708 -1.00742
333 2 0.0 -6.94168 -3.54645 2.14308
334 2 0.0 -3.55539 -4.34156 -0.389885
335 2 0.0 0.510263 -2.97395 -0.774722
336 2 0.0 2.93911 -3.56529 -1.69568
337 3 0.0 2.89154 -4.37905 -2.2585
338 2 0.0 2.21639 -5.13985 1.52577
339 3 0.0 2.22633 -4.33549 2.1055
340 2 0.0 8.21163 -3.23836 0.528104
341 2 0.0 11.7572 -4.64854 -1.172
342 2 0.0 -13.6305 -4.91535 0.718574
343 3 0.0 -14.5112 -5.34703 0.571136
344 2 0.0 -11.2191 -3.49645 -1.59934
345 3 0.0 -10.841 -4.30445 -2.03257
346 2 0.0 -11.1343 -5.53065 1.42882
347 2 0.0 -0.00851422 -6.63369 1.69304
348 3 0.0 -0.601125 -6.25891 2.39403
349 2 0.0 -0.0920314 -6.23891 -1.89255
350 3 0.0 -0.722599 -6.88199 -2.30368
351 2 0.0 -13.6359 -9.22955 -0.186083
352 3 0.0 -13.8062 -8.39184 0.314569
353 2 0.0 -10.8097 -8.09705 -2.1818
354 3 0.0 -10.1111 -7.40444 -2.06807
355 2 0.0 -9.05103 -8.89126 1.67785
356 2 0.0 -6.74356 -8.30346 2.37405
357 3 0.0 -6.74484 -9.22635 2.73707
358 2 0.0 -6.95029 -6.91075 -0.973892
359 3 0.0 -6.10034 -7.25017 -1.35269
360 2 0.0 -2.46261 -9.24164 1.93245
361 3 0.0 -3.06195 -9.80108 2.4908
362 2 0.0 -2.57564 -8.22313 -1.54119
363 3 0.0 -2.3973 -9.05983 -2.04055
364 2 0.0 2.01264 -8.95423 0.969311
365 3 0.0 1.29149 -9.45716 1.42616
366 2 0.0 2.71924 -8.19634 -2.48524
367 2 0.0 9.31128 -0.510846 0.9993
368 3 0.0 9.26394 0.386947 1.41534
369 2 0.0 10.7447 0.418626 -2.19438
370 3 0.0 11.574 0.882992 -2.47842
371 2 0.0 7.95943 -7.82655 1.76941
372 3 0.0 7.94911 -8.64478 2.32998
373 2 0.0 8.2636 -7.35867 -1.81105
374 3 0.0 8.22868 -6.55731 -2.39347
